ITEM: TIMESTEP
0
ITEM: NUMBER OF ATOMS
648
ITEM: BOX BOUNDS pp pp pp
0.0846996 18.7053
0.019701 18.6403
0.0247002 18.6453
ITEM: ATOMS id type xu yu zu
 1 1 2.3 6.28 1.13
 2 2 1.37 6.26 1.5
 3 3 2.31 5.89 0.21
 4 1 2.25 2.75 9.96
 5 2 2.6 2.58 10.88
 6 3 1.37 2.3 9.84
 7 1 18.81 3.68 6.47
 8 2 18 4.11 6.86
 9 3 18.53 2.95 5.84
 10 1 5.69 12.75 11.65
 11 2 4.76 12.68 11.28
 12 3 5.8 13.64 12.09
 13 1 15.55 15.11 7.03
 14 2 14.98 14.95 7.84
 15 3 14.96 15.21 6.23
 16 1 17.43 6.18 8.56
 17 2 17.76 7.12 8.56
 18 3 17.95 5.64 9.22
 19 1 11.35 7.03 7.17
 20 2 11.92 7.81 6.92
 21 3 10.75 7.29 7.93
 22 1 17.55 6.07 2.31
 23 2 17.43 5.94 1.33
 24 3 17.25 5.25 2.8
 25 1 7.68 11.44 10.23
 26 2 6.9 11.61 10.83
 27 3 8.02 12.31 9.87
 28 1 8.5 7.98 18.23
 29 2 8.46 8.74 18.88
 30 3 8.72 8.34 17.32
 31 1 6.85 10.12 6.65
 32 2 7.54 9.96 7.35
 33 3 6.12 10.69 7.03
 34 1 6.86 11.61 18.03
 35 2 7.46 12.4 18.17
 36 3 6 11.92 17.62
 37 1 3.35 14.35 10.61
 38 2 2.56 14.04 10.08
 39 3 3.93 14.93 10.04
 40 1 14.6 15.05 13.39
 41 2 14.84 15.99 13.65
 42 3 14.44 14.51 14.21
 43 1 4.38 3.92 14.99
 44 2 5.2 3.36 15.08
 45 3 3.57 3.34 15.03
 46 1 16.03 4.47 7.37
 47 2 15.29 4.93 6.87
 48 3 16.54 5.15 7.9
 49 1 2.31 17.13 4.83
 50 2 2.65 17.9 5.37
 51 3 2.75 17.13 3.93
 52 1 11.27 13.41 16.9
 53 2 11.74 13.42 17.78
 54 3 10.79 12.54 16.79
 55 1 2.3 14.34 5.38
 56 2 2.04 15.31 5.38
 57 3 1.59 13.8 5.83
 58 1 2.4 10.91 8.86
 59 2 2.54 10.07 9.38
 60 3 1.85 11.55 9.4
 61 1 6.2 17.86 14.39
 62 2 5.28 17.69 14.74
 63 3 6.48 18.78 14.65
 64 1 6.06 9.64 1.23
 65 2 6.13 10.48 0.69
 66 3 6.52 9.77 2.11
 67 1 15.94 1.14 14.8
 68 2 15.76 1.81 14.08
 69 3 15.91 1.6 15.69
 70 1 1.22 6.43 5.63
 71 2 0.77 5.55 5.8
 72 3 1.21 6.97 6.47
 73 1 -0.2 17.67 3.59
 74 2 0.34 17.38 4.38
 75 3 0.1 18.58 3.3
 76 1 0.27 15.96 1.17
 77 2 0.08 15 1.38
 78 3 -0.06 16.54 1.92
 79 1 16.89 9.22 6.12
 80 2 17.84 8.93 6.2
 81 3 16.81 9.87 5.37
 82 1 16.41 11.08 4.32
 83 2 17.26 11.1 3.8
 84 3 16.55 11.55 5.2
 85 1 1.13 7.37 15.97
 86 2 2.01 7.24 16.42
 87 3 1 8.34 15.75
 88 1 6.13 13.65 7.26
 89 2 5.64 12.78 7.35
 90 3 5.9 14.08 6.39
 91 1 12.93 12.28 14.23
 92 2 13.3 11.55 13.65
 93 3 13.45 12.33 15.08
 94 1 8.09 0.04 5.02
 95 2 8.49 0.95 4.93
 96 3 7.09 0.12 5.08
 97 1 1.97 9.76 12.64
 98 2 2.86 9.31 12.5
 99 3 1.24 9.11 12.45
 100 1 15.25 9.99 1.9
 101 2 14.62 9.23 2.03
 102 3 15.73 10.17 2.76
 103 1 11.87 17.92 16.16
 104 2 12.11 18.52 15.4
 105 3 11.94 16.97 15.86
 106 1 3.17 2.51 18.01
 107 2 3.88 3.21 18.07
 108 3 2.29 2.9 18.29
 109 1 14.66 14.17 9.53
 110 2 14.07 14.23 10.33
 111 3 14.51 13.29 9.07
 112 1 16.67 17.14 5.72
 113 2 16.26 16.91 4.84
 114 3 16.49 16.4 6.37
 115 1 5.98 7.29 2.7
 116 2 6.22 7.98 2.02
 117 3 5.2 7.62 3.24
 118 1 12.81 3.45 9.44
 119 2 11.95 2.95 9.31
 120 3 13.43 2.91 10
 121 1 15.76 16.62 3.07
 122 2 16.65 17.08 3.1
 123 3 15.55 16.38 2.12
 124 1 8.07 6.05 14.65
 125 2 7.6 6.02 15.54
 126 3 7.56 5.5 13.99
 127 1 13.94 4.69 16.74
 128 2 13.74 5.12 17.62
 129 3 14.72 4.07 16.84
 130 1 9.73 8.9 15.72
 131 2 10.19 8.06 15.43
 132 3 9.17 9.24 14.97
 133 1 9.91 4.1 12.42
 134 2 9.14 4.44 12.96
 135 3 9.57 3.59 11.63
 136 1 10.41 7.01 4.29
 137 2 10.67 6.97 5.25
 138 3 9.56 6.5 4.15
 139 1 0.76 8.11 7.89
 140 2 1.75 7.99 7.98
 141 3 0.52 9.06 8.1
 142 1 1.3 18.21 15.71
 143 2 1.21 18.06 16.7
 144 3 0.44 18.57 15.35
 145 1 8.65 3.48 1.95
 146 2 9.25 4.11 1.46
 147 3 8.84 2.54 1.66
 148 1 17.19 5.85 18.31
 149 2 16.93 6.74 17.95
 150 3 17.17 5.17 17.58
 151 1 13.62 11.44 5.45
 152 2 14.45 11.15 4.97
 153 3 13.13 12.11 4.89
 154 1 5.5 1.96 8.85
 155 2 5.45 1.91 9.85
 156 3 5.52 2.92 8.56
 157 1 10.08 14.56 4.77
 158 2 9.62 15.28 4.26
 159 3 10.04 14.77 5.75
 160 1 3.51 18.01 8.53
 161 2 4.01 17.15 8.59
 162 3 4.16 18.77 8.5
 163 1 17.95 10.66 8.73
 164 2 17.32 10.51 7.97
 165 3 17.43 10.77 9.58
 166 1 12.27 15.5 15.06
 167 2 12.33 14.73 15.7
 168 3 11.74 15.23 14.25
 169 1 3.21 9.43 2.42
 170 2 4.03 9.82 2
 171 3 2.94 8.61 1.93
 172 1 14.58 7.35 7.28
 173 2 14.53 6.69 8.03
 174 3 15.38 7.94 7.41
 175 1 4.61 12.66 17.27
 176 2 4.1 12.67 16.41
 177 3 3.98 12.48 18.03
 178 1 11.11 17.76 2.37
 179 2 10.51 17.14 2.87
 180 3 11.42 17.32 1.53
 181 1 2.02 2.85 14.98
 182 2 1.23 3.45 14.85
 183 3 1.92 2.36 15.84
 184 1 16.32 13.77 0.81
 185 2 16 14.71 0.71
 186 3 15.55 13.14 0.69
 187 1 4.64 17.43 3.23
 188 2 4.97 17.82 4.09
 189 3 5.4 17.36 2.58
 190 1 14 1.07 4.26
 191 2 13.76 0.7 3.36
 192 3 14.99 1.23 4.3
 193 1 2.49 17.85 12.41
 194 2 3.06 17.2 12.91
 195 3 2.33 17.52 11.48
 196 1 9.4 16.98 9.04
 197 2 10.2 16.42 9.25
 198 3 8.91 16.58 8.27
 199 1 3.82 7 4.8
 200 2 4.27 6.11 4.77
 201 3 2.88 6.89 5.13
 202 1 15.47 2.22 17.29
 203 2 15.42 2.59 18.22
 204 3 14.75 1.53 17.17
 205 1 6.14 1.22 1.17
 206 2 7.11 1 1.24
 207 3 5.83 1.05 0.24
 208 1 7.81 2.64 17.49
 209 2 8.48 2.03 17.92
 210 3 7.08 2.83 18.14
 211 1 8.88 15.14 11.95
 212 2 8.65 14.89 11.01
 213 3 9.49 14.45 12.34
 214 1 13.51 5.9 14.33
 215 2 13.79 5.47 15.19
 216 3 13.76 6.87 14.34
 217 1 8.03 14.02 9.24
 218 2 8.93 14.16 8.82
 219 3 7.32 14.04 8.53
 220 1 9.22 5.03 8.99
 221 2 8.97 4.93 8.03
 222 3 9.7 4.21 9.29
 223 1 5.39 0.64 5.12
 224 2 4.58 0.65 5.7
 225 3 5.42 1.47 4.57
 226 1 14.34 11.88 0.41
 227 2 14.66 11.12 0.98
 228 3 13.42 12.15 0.71
 229 1 2.97 0.35 1.71
 230 2 3.46 1.19 1.5
 231 3 3.59 -0.3 2.16
 232 1 9.35 2.36 4.8
 233 2 8.87 2.77 4.02
 234 3 10.33 2.34 4.61
 235 1 10.76 6.83 14.64
 236 2 9.96 6.22 14.67
 237 3 11.57 6.3 14.4
 238 1 12.27 15.7 7.93
 239 2 12.48 16.44 7.28
 240 3 12.95 15.7 8.66
 241 1 4.59 11.52 7.41
 242 2 3.88 11.25 8.06
 243 3 4.33 11.24 6.49
 244 1 12.71 17.97 5.91
 245 2 13.15 18.61 5.27
 246 3 12.21 18.49 6.61
 247 1 10.32 5.49 0.16
 248 2 9.91 6.31 -0.23
 249 3 10.96 5.75 0.89
 250 1 0.78 5.56 13.86
 251 2 1.69 5.55 13.45
 252 3 0.72 6.3 14.53
 253 1 5.61 2.22 11.47
 254 2 5.99 1.37 11.84
 255 3 4.73 2.41 11.91
 256 1 8.66 4.54 6.42
 257 2 8.34 5.26 5.8
 258 3 8.9 3.73 5.89
 259 1 10.17 0.39 7.53
 260 2 9.45 0.44 6.84
 261 3 9.93 -0.3 8.22
 262 1 14.29 11.73 8.67
 263 2 13.74 10.9 8.61
 264 3 14.55 12.03 7.75
 265 1 14.66 5.9 9.92
 266 2 14.36 4.95 9.99
 267 3 15.39 6.06 10.58
 268 1 18.57 8.33 3.77
 269 2 18.99 7.69 4.41
 270 3 18.19 7.82 2.99
 271 1 4.88 13.85 1.74
 272 2 4.01 13.7 2.21
 273 3 4.71 14.11 0.79
 274 1 16.64 12.8 6.57
 275 2 17.63 12.88 6.71
 276 3 16.19 13.64 6.88
 277 1 13.9 5.75 0.78
 278 2 13.36 5.54 1.59
 279 3 14.81 5.34 0.87
 280 1 5.27 2.56 3.28
 281 2 5.54 1.96 2.52
 282 3 5.27 3.51 2.97
 283 1 17.54 12.23 15.88
 284 2 18.45 11.84 15.75
 285 3 17.62 13.2 16.12
 286 1 10.64 13.47 13.4
 287 2 9.84 13.24 13.95
 288 3 11.47 13.21 13.89
 289 1 15.92 16.29 16.25
 290 2 16.19 16.63 15.35
 291 3 16.72 15.91 16.72
 292 1 11.11 11.95 11
 293 2 10.71 12.39 11.8
 294 3 10.7 12.32 10.17
 295 1 16.38 10.99 10.79
 296 2 16.43 11.8 11.38
 297 3 15.52 11.01 10.28
 298 1 9.15 0.89 14.02
 299 2 9.4 0.69 13.07
 300 3 9.87 1.45 14.44
 301 1 9.8 11.16 17.19
 302 2 8.81 11.22 17.29
 303 3 10.03 10.36 16.63
 304 1 7.05 10.5 3.68
 305 2 6.91 10.57 4.67
 306 3 7.89 9.99 3.5
 307 1 4.1 8.13 12.51
 308 2 4.96 8.25 13.01
 309 3 3.68 7.26 12.78
 310 1 12.74 3.86 12.62
 311 2 12.95 4.6 13.26
 312 3 11.85 4.03 12.19
 313 1 0.64 15.64 13.31
 314 2 0.18 16.46 12.97
 315 3 1.62 15.83 13.4
 316 1 3.67 11 5.01
 317 2 3.6 11.83 4.45
 318 3 3.71 10.2 4.41
 319 1 5.66 5.37 8.65
 320 2 5.78 6.03 7.91
 321 3 6.12 5.71 9.47
 322 1 12.52 13.48 3.88
 323 2 13.02 14.25 4.28
 324 3 11.57 13.5 4.2
 325 1 12.72 14.45 11.42
 326 2 13.19 14.58 12.29
 327 3 12.06 13.71 11.51
 328 1 15.82 6.39 4.72
 329 2 15.51 7 5.45
 330 3 16.32 6.91 4.03
 331 1 3.54 15.1 13.29
 332 2 3.33 14.66 12.42
 333 3 4.51 15.36 13.32
 334 1 4.02 7.51 15.98
 335 2 4.71 8.06 15.51
 336 3 4.42 6.63 16.25
 337 1 15.87 7.79 16.7
 338 2 14.95 8.17 16.65
 339 3 16.47 8.26 16.05
 340 1 10.13 1.05 17.7
 341 2 10.19 1.9 17.18
 342 3 10.45 0.29 17.13
 343 1 5.04 0.5 17.4
 344 2 4.62 -0.07 16.7
 345 3 4.38 1.18 17.72
 346 1 5.73 8.7 10.29
 347 2 6.17 9.59 10.21
 348 3 5.1 8.71 11.07
 349 1 13.6 8.62 10.45
 350 2 12.85 8.62 9.79
 351 3 13.97 7.7 10.54
 352 1 12.09 5.25 2.75
 353 2 12.22 4.42 3.29
 354 3 11.8 5.99 3.35
 355 1 3.07 2.13 12.31
 356 2 2.84 2.5 13.21
 357 3 2.77 1.18 12.25
 358 1 0.37 13.1 12.82
 359 2 0.9 12.61 13.51
 360 3 0.59 14.08 12.87
 361 1 7.32 6.34 10.64
 362 2 7.91 6.08 9.88
 363 3 7.04 7.29 10.53
 364 1 17.28 9.35 18.54
 365 2 16.82 9.28 17.65
 366 3 16.67 9.79 19.2
 367 1 3.07 0.63 6.18
 368 2 2.96 1.57 6.51
 369 3 3.02 0 6.95
 370 1 16.22 3.67 3.74
 371 2 16.24 2.91 4.39
 372 3 15.74 4.44 4.15
 373 1 10.23 7.66 9.66
 374 2 10.38 7.87 10.63
 375 3 9.93 6.71 9.57
 376 1 9.8 15.73 17
 377 2 9.6 16.17 16.12
 378 3 10.19 14.82 16.84
 379 1 -0.03 15.18 16.05
 380 2 0.11 15.45 15.1
 381 3 0.79 15.4 16.58
 382 1 3.5 8.98 18.04
 383 2 4.26 9.42 18.52
 384 3 3.85 8.51 17.23
 385 1 15.4 2.74 1.25
 386 2 14.79 1.99 1.48
 387 3 15.62 3.26 2.08
 388 1 13.03 8.38 0.42
 389 2 13.37 7.45 0.57
 390 3 13.21 8.65 -0.53
 391 1 10.68 13.33 8.49
 392 2 10.75 12.5 7.94
 393 3 11.3 14.02 8.13
 394 1 3.19 8.1 9.49
 395 2 4.12 8.46 9.54
 396 3 3.13 7.25 10.01
 397 1 3.39 5.09 10.06
 398 2 2.87 4.26 9.89
 399 3 4.16 5.14 9.42
 400 1 5.11 4.15 18.08
 401 2 4.93 4.6 18.96
 402 3 5.53 4.8 17.45
 403 1 11.38 3.8 16.78
 404 2 10.93 4.43 17.42
 405 3 12.32 4.11 16.61
 406 1 11.6 2.07 14.77
 407 2 11.6 2.71 15.54
 408 3 11.88 2.55 13.94
 409 1 18.7 13.26 2
 410 2 17.77 13.47 1.69
 411 3 18.8 12.27 2.13
 412 1 0.88 18.01 9.27
 413 2 0.46 17.15 9
 414 3 1.82 18.04 8.93
 415 1 5.04 15.68 9.1
 416 2 5.7 16.42 9.19
 417 3 5.48 14.89 8.68
 418 1 10.02 7.96 12.38
 419 2 10.43 7.64 13.24
 420 3 9.06 7.69 12.35
 421 1 0.4 5.44 11.14
 422 2 1.25 5.11 10.73
 423 3 0.53 5.59 12.12
 424 1 1.89 5.2 17.22
 425 2 2.48 4.8 16.52
 426 3 1.31 5.91 16.81
 427 1 13.69 9.5 16.6
 428 2 14.08 10.4 16.8
 429 3 13.79 9.3 15.63
 430 1 8.15 5.72 3.25
 431 2 8.22 4.83 2.79
 432 3 7.21 6.06 3.17
 433 1 16.57 6.04 12.06
 434 2 16.19 5.35 12.68
 435 3 17.39 5.68 11.62
 436 1 2.52 15.64 17.44
 437 2 2.22 16.21 18.2
 438 3 2.45 14.68 17.7
 439 1 6.71 4.64 12.69
 440 2 6.37 3.75 12.39
 441 3 6.97 5.18 11.89
 442 1 9.3 16.78 14.65
 443 2 9.06 16.6 13.7
 444 3 9.6 17.73 14.75
 445 1 4.73 5 1.91
 446 2 5.34 5.79 1.95
 447 3 3.78 5.31 1.98
 448 1 1.59 11.37 14.66
 449 2 1.81 10.76 15.42
 450 3 1.69 10.88 13.8
 451 1 13.47 10.59 12.34
 452 2 13.71 9.96 11.6
 453 3 12.57 10.99 12.16
 454 1 13.02 8.55 3.09
 455 2 12.17 8.24 3.51
 456 3 12.98 8.41 2.1
 457 1 17.59 17.47 11.54
 458 2 18.2 17.77 10.81
 459 3 17.21 16.57 11.32
 460 1 12.52 17.31 11.28
 461 2 13.36 17.36 10.74
 462 3 12.29 16.35 11.46
 463 1 0.83 12.58 10.22
 464 2 0.78 12.57 11.22
 465 3 0 12.17 9.84
 466 1 6.88 16.62 17.16
 467 2 6.31 17.44 17.25
 468 3 7.4 16.66 16.3
 469 1 9.03 0.86 1.33
 470 2 9.54 0.87 0.47
 471 3 9.59 0.44 2.04
 472 1 17.26 1.35 5.23
 473 2 17.99 1.18 4.56
 474 3 16.95 0.48 5.61
 475 1 13.88 15.73 4.77
 476 2 14.55 15.85 4.03
 477 3 13.48 16.62 5
 478 1 1.3 17.94 -0.11
 479 2 0.89 17.2 0.42
 480 3 1.94 18.45 0.47
 481 1 12.8 9.27 6.72
 482 2 13.39 8.47 6.74
 483 3 13.2 9.96 6.12
 484 1 8.3 12.73 14.22
 485 2 8.25 13.06 15.16
 486 3 7.44 12.92 13.76
 487 1 6.72 16.16 1.54
 488 2 6.81 16.26 0.55
 489 3 6.32 15.27 1.75
 490 1 16.5 17.2 13.94
 491 2 17.03 17.3 13.1
 492 3 16.23 18.1 14.28
 493 1 18.41 1.75 9.63
 494 2 18.8 0.9 9.27
 495 3 17.43 1.77 9.44
 496 1 2.63 3.26 7.2
 497 2 1.84 3.77 6.86
 498 3 2.54 3.11 8.18
 499 1 11.94 16.12 0.31
 500 2 12 15.19 0.68
 501 3 11.35 16.12 -0.49
 502 1 8.22 10.02 13.72
 503 2 8.62 10.01 12.8
 504 3 8.32 10.93 14.12
 505 1 9.16 9.1 2.91
 506 2 9.79 9.48 2.23
 507 3 9.56 8.27 3.3
 508 1 15.04 16.07 0.44
 509 2 14.12 16.44 0.51
 510 3 15.42 16.27 -0.46
 511 1 3.72 12.88 14.9
 512 2 3.59 13.81 14.56
 513 3 2.88 12.36 14.77
 514 1 16.14 12.92 12.89
 515 2 16.74 12.95 13.69
 516 3 15.39 13.56 13.02
 517 1 10.39 10.98 6.96
 518 2 9.69 10.51 7.5
 519 3 10.98 10.3 6.53
 520 1 10.14 2.36 9.71
 521 2 10.06 2 8.78
 522 3 10.12 1.6 10.36
 523 1 5.9 14.87 4.91
 524 2 6.32 14.29 4.21
 525 3 5.46 15.66 4.47
 526 1 17.09 3.85 13.81
 527 2 17.82 4.54 13.85
 528 3 17.37 3.1 13.22
 529 1 2.55 13.48 2.9
 530 2 1.59 13.49 2.63
 531 3 2.67 14.01 3.74
 532 1 1.05 10.13 17.26
 533 2 0.28 9.8 17.8
 534 3 1.91 9.83 17.68
 535 1 6.72 2.03 14.89
 536 2 7.62 1.87 14.49
 537 3 6.8 2.08 15.89
 538 1 0.75 3.45 0.33
 539 2 -0.17 3.17 0.04
 540 3 1.06 4.22 -0.23
 541 1 14.4 8.56 13.98
 542 2 13.83 9.08 13.35
 543 3 15.36 8.68 13.74
 544 1 0.72 1.66 3.18
 545 2 0.55 2.49 2.64
 546 3 1.62 1.29 2.96
 547 1 11.83 13.35 1.19
 548 2 10.84 13.24 1.21
 549 3 12.17 13.5 2.12
 550 1 6.13 8.42 14.31
 551 2 6.69 9.23 14.14
 552 3 6.72 7.61 14.34
 553 1 14.93 17.67 9.59
 554 2 15.26 18.31 8.9
 555 3 15.59 17.61 10.34
 556 1 7.16 5.65 17.08
 557 2 7.35 6.3 17.82
 558 3 7.76 4.85 17.17
 559 1 14.5 12.2 16.33
 560 2 14.41 12.1 17.32
 561 3 15.46 12.13 16.07
 562 1 3.9 17.41 15.6
 563 2 2.99 17.82 15.58
 564 3 3.83 16.47 15.92
 565 1 16.74 8.83 12.54
 566 2 16.47 7.94 12.17
 567 3 16.75 9.51 11.81
 568 1 12.25 3.25 4.49
 569 2 12.91 2.5 4.38
 570 3 12.45 3.75 5.33
 571 1 5.94 7.45 6.52
 572 2 6.44 8.3 6.33
 573 3 5.06 7.47 6.04
 574 1 17.77 3.42 16.42
 575 2 17.6 3.73 15.48
 576 3 16.93 3.05 16.8
 577 1 17.3 9.34 15.17
 578 2 17.68 10.25 15.32
 579 3 17.22 9.17 14.19
 580 1 8.59 13.74 0.16
 581 2 8.13 13.89 1.04
 582 3 9.03 14.59 -0.14
 583 1 6.61 17.9 9.53
 584 2 6.15 18.78 9.4
 585 3 7.6 18.02 9.46
 586 1 14.08 18.51 17.2
 587 2 13.12 18.4 16.93
 588 3 14.64 17.84 16.72
 589 1 8.59 9.56 8.61
 590 2 9.13 8.87 9.09
 591 3 8.27 10.25 9.26
 592 1 10.83 9.84 0.87
 593 2 10.6 10.37 0.05
 594 3 11.64 9.28 0.68
 595 1 18.61 15.69 8.51
 596 2 17.9 15.57 7.81
 597 3 18.62 14.89 9.11
 598 1 2.21 13.14 -0.18
 599 2 1.56 12.41 -0.39
 600 3 2.25 13.28 0.81
 601 1 0.79 12.4 6.53
 602 2 0.78 11.93 7.41
 603 3 1.6 12.12 6.02
 604 1 6.72 13.91 16.24
 605 2 5.94 13.41 16.62
 606 3 6.69 14.86 16.55
 607 1 18.24 1.92 12.27
 608 2 18.2 1.02 12.71
 609 3 18.27 1.81 11.28
 610 1 4.28 4.24 5.2
 611 2 4.58 3.51 4.58
 612 3 3.89 3.84 6.03
 613 1 17.05 14.87 11.04
 614 2 16.12 14.62 10.77
 615 3 17.31 14.37 11.86
 616 1 3.17 5.47 12.8
 617 2 3.55 4.88 13.52
 618 3 3.57 5.21 11.92
 619 1 8.12 15.86 6.87
 620 2 8.44 15.96 5.93
 621 3 7.33 15.24 6.89
 622 1 14.24 2.14 11.12
 623 2 14.76 1.49 11.67
 624 3 13.75 2.77 11.73
 625 1 10.01 18.96 11.54
 626 2 9.38 18.25 11.23
 627 3 10.94 18.6 11.54
 628 1 7.7 13.3 3.01
 629 2 7.24 12.43 3.18
 630 3 8.61 13.28 3.42
 631 1 6.18 15.67 12.84
 632 2 6.13 16.49 13.41
 633 3 7.07 15.64 12.39
 634 1 13.52 0.52 1.68
 635 2 13.87 0.11 0.84
 636 3 12.62 0.14 1.88
 637 1 13 4.53 6.91
 638 2 12.41 5.33 6.95
 639 3 13.15 4.18 7.84
 640 1 15.93 2.21 8.82
 641 2 15.09 2.2 9.36
 642 3 15.95 3.04 8.26
 643 1 0.39 10.77 3
 644 2 1.38 10.66 2.91
 645 3 -0.01 9.91 3.32
 646 1 8.75 16.46 3.37
 647 2 7.98 16.11 2.83
 648 3 8.43 17.17 3.99
ITEM: TIMESTEP
1
ITEM: NUMBER OF ATOMS
648
ITEM: BOX BOUNDS pp pp pp
-0.275133 18.3851
0.0298662 18.6901
-0.0901327 18.5701
ITEM: ATOMS id type xu yu zu
 1 1 2.05 6.02 1.24
 2 2 1.14 6.24 1.59
 3 3 2.02 5.98 0.24
 4 1 2.55 2.97 10.46
 5 2 2.73 2.55 11.35
 6 3 1.69 2.63 10.09
 7 1 18.8 4.26 6.56
 8 2 18.58 4.8 7.38
 9 3 17.95 4.01 6.09
 10 1 5.73 13 11.94
 11 2 5 12.81 12.6
 12 3 5.4 13.66 11.26
 13 1 15.53 15.55 7.29
 14 2 15.32 14.6 7.53
 15 3 15.08 15.78 6.43
 16 1 18.2 6.02 8.7
 17 2 18.34 6.87 8.18
 18 3 18.6 6.12 9.61
 19 1 11.46 7.23 6.84
 20 2 11.79 8.17 6.86
 21 3 10.87 7.07 7.63
 22 1 17.43 5.9 2.27
 23 2 17.18 6.03 1.31
 24 3 17.16 4.99 2.57
 25 1 7.24 10.89 10.64
 26 2 6.73 11.6 11.13
 27 3 7.98 11.32 10.11
 28 1 8.23 8.14 17.8
 29 2 7.76 8.79 18.4
 30 3 8.89 8.62 17.24
 31 1 6.81 9.9 6.59
 32 2 7.61 10.1 7.15
 33 3 6.08 10.56 6.8
 34 1 7.41 11.16 18.59
 35 2 7.87 11.94 19
 36 3 6.62 11.47 18.06
 37 1 3.01 14.33 10.75
 38 2 2.09 13.97 10.6
 39 3 3.27 14.92 9.99
 40 1 14.89 15.12 13.5
 41 2 15.44 15.95 13.46
 42 3 14.06 15.3 14.02
 43 1 4.99 3.78 14.69
 44 2 5.51 2.99 14.36
 45 3 4.35 3.47 15.4
 46 1 15.75 3.87 7.46
 47 2 15.68 4.16 6.51
 48 3 15.61 4.66 8.06
 49 1 2.2 17.22 4.88
 50 2 2.38 18.06 5.38
 51 3 2.78 17.17 4.07
 52 1 11.44 13.56 17.58
 53 2 11.86 13.64 18.49
 54 3 10.98 12.68 17.5
 55 1 3.03 14.26 5.11
 56 2 3 15.18 5.52
 57 3 2.42 13.65 5.61
 58 1 2.61 11.22 8.73
 59 2 2.69 10.28 9.05
 60 3 1.94 11.71 9.29
 61 1 6 18.01 14.67
 62 2 5.08 17.85 15.04
 63 3 6.22 18.98 14.74
 64 1 5.74 9.78 1.74
 65 2 6.24 10.26 1.03
 66 3 6.15 9.97 2.63
 67 1 16.3 1.41 14.65
 68 2 16.86 2.09 14.17
 69 3 15.59 1.87 15.18
 70 1 0.98 6.63 5.4
 71 2 0.92 5.65 5.59
 72 3 0.79 7.15 6.23
 73 1 -0.13 17.81 3.79
 74 2 0.65 17.61 4.38
 75 3 -0.1 18.78 3.53
 76 1 -0.02 16.02 1.5
 77 2 0.12 15.03 1.53
 78 3 0.12 16.41 2.41
 79 1 17.11 9.43 6.34
 80 2 17.26 8.56 5.86
 81 3 17.21 10.19 5.7
 82 1 16.8 11.63 3.9
 83 2 17.72 11.29 3.7
 84 3 16.82 12.22 4.71
 85 1 0.86 7.59 15.64
 86 2 1.82 7.87 15.61
 87 3 0.37 8.02 14.89
 88 1 6.35 14.11 7.22
 89 2 5.73 13.38 7.5
 90 3 6.42 14.12 6.22
 91 1 13 12.14 14.49
 92 2 13.26 11.54 13.74
 93 3 13.71 12.15 15.19
 94 1 8.06 0 5.24
 95 2 8.6 0.66 4.72
 96 3 7.14 0.36 5.38
 97 1 1.49 8.97 12.67
 98 2 2.44 8.68 12.65
 99 3 1.33 9.65 11.96
 100 1 15.41 9.73 2.33
 101 2 14.58 9.34 2.74
 102 3 15.67 10.56 2.82
 103 1 11.99 18.3 16.14
 104 2 11.83 19.07 15.51
 105 3 12.29 17.5 15.63
 106 1 2.84 2.31 18.05
 107 2 3.45 3.09 17.95
 108 3 1.94 2.61 18.38
 109 1 14.29 13.87 9.6
 110 2 13.51 14.16 10.15
 111 3 14.21 12.89 9.39
 112 1 16.57 17.97 6.34
 113 2 17.08 17.57 5.57
 114 3 15.97 17.27 6.73
 115 1 6.05 7.16 3.21
 116 2 5.86 7.81 2.47
 117 3 5.3 7.19 3.87
 118 1 12.55 4.14 9.3
 119 2 11.57 4.3 9.34
 120 3 12.79 3.36 9.88
 121 1 15.66 17.25 2.86
 122 2 16.6 17.6 2.79
 123 3 15.45 16.71 2.04
 124 1 8.26 5.34 14.56
 125 2 7.68 5.29 15.37
 126 3 7.75 5.02 13.77
 127 1 14.23 4.71 16.34
 128 2 14.08 5.24 17.17
 129 3 14.63 3.82 16.57
 130 1 9.65 9.08 15.6
 131 2 10.27 8.36 15.29
 132 3 9.27 9.56 14.81
 133 1 9.8 3.76 12.38
 134 2 9.12 4.38 12.77
 135 3 9.35 3.06 11.83
 136 1 10.72 7.48 4.22
 137 2 10.85 7.45 5.21
 138 3 9.85 7.04 3.99
 139 1 0.93 8.34 7.66
 140 2 1.81 8.32 8.14
 141 3 0.4 9.12 7.97
 142 1 0.74 0.1 15.81
 143 2 0.9 -0.3 16.71
 144 3 -0.23 0.34 15.71
 145 1 8.87 3.71 2.24
 146 2 9.02 4.23 1.4
 147 3 8.84 2.74 2.03
 148 1 16.9 5.9 18.27
 149 2 16.47 6.63 17.73
 150 3 17.26 5.2 17.66
 151 1 13.73 11.79 5.34
 152 2 14.65 11.66 4.99
 153 3 13.27 12.51 4.81
 154 1 5.23 1.83 8.85
 155 2 4.98 2.11 9.78
 156 3 5.6 2.62 8.36
 157 1 9.66 14.34 4.26
 158 2 9.16 15.02 3.72
 159 3 9.54 14.54 5.23
 160 1 3.69 18.33 8.96
 161 2 4.27 17.51 8.92
 162 3 4.27 19.14 9.01
 163 1 18.12 10.72 8.57
 164 2 17.64 10.38 7.77
 165 3 17.48 10.82 9.33
 166 1 12.52 15.23 15.03
 167 2 12.38 14.68 15.85
 168 3 11.63 15.56 14.69
 169 1 3.2 9.65 2.33
 170 2 4.14 9.67 1.99
 171 3 2.63 9.12 1.69
 172 1 14.76 7.33 6.67
 173 2 14.45 6.38 6.67
 174 3 15.14 7.56 7.56
 175 1 4.75 12.65 17.19
 176 2 4.42 12.66 16.25
 177 3 3.98 12.45 17.81
 178 1 11.11 17.74 2.36
 179 2 10.65 17.25 3.1
 180 3 11.71 17.12 1.87
 181 1 1.64 2.87 15.38
 182 2 0.67 3.09 15.29
 183 3 1.77 2.2 16.1
 184 1 15.85 13.51 0.44
 185 2 15.58 14.47 0.34
 186 3 15.04 12.97 0.66
 187 1 5.11 17.58 3.28
 188 2 5.12 18.33 3.95
 189 3 5.73 17.79 2.53
 190 1 14.54 1.07 4.77
 191 2 14.48 0.62 3.88
 192 3 15.47 1.41 4.91
 193 1 2.6 17.92 12.01
 194 2 3.43 17.37 11.94
 195 3 2.14 17.94 11.12
 196 1 8.96 16.59 9.31
 197 2 9.18 15.86 9.96
 198 3 9.32 16.35 8.41
 199 1 3.77 6.7 4.87
 200 2 3.86 5.72 5.06
 201 3 2.81 6.97 4.99
 202 1 15.49 2.52 17.54
 203 2 15.63 2.52 18.53
 204 3 15.08 1.65 17.26
 205 1 6.13 0.81 1.22
 206 2 7.1 0.67 1.43
 207 3 5.95 0.57 0.27
 208 1 7.63 3.32 17.99
 209 2 8.19 2.51 18.2
 210 3 6.67 3.04 17.91
 211 1 8.9 14.92 11.69
 212 2 8.4 14.29 11.11
 213 3 9.53 14.41 12.28
 214 1 13.45 5.91 14.04
 215 2 13.99 5.41 14.72
 216 3 13.87 6.81 13.88
 217 1 7.98 13.53 9.54
 218 2 8.91 13.47 9.18
 219 3 7.36 13.83 8.82
 220 1 9.85 5.18 9.18
 221 2 9.57 5.07 8.22
 222 3 9.76 4.3 9.65
 223 1 5.49 0.91 5.27
 224 2 4.88 1.16 6.02
 225 3 5.31 1.49 4.47
 226 1 13.72 11.79 0.73
 227 2 13.97 10.96 1.22
 228 3 12.8 11.7 0.35
 229 1 3 0.4 1.54
 230 2 3.36 1.08 0.9
 231 3 3.73 0.07 2.13
 232 1 9.71 2.52 4.55
 233 2 9.42 2.95 3.7
 234 3 10.68 2.71 4.71
 235 1 10.85 6.76 14.8
 236 2 10.13 6.07 14.7
 237 3 11.73 6.36 14.53
 238 1 12.24 15.99 8.16
 239 2 12.52 16.82 7.67
 240 3 12.37 16.13 9.14
 241 1 4.8 11.82 7.01
 242 2 4.09 11.59 7.68
 243 3 4.45 11.66 6.09
 244 1 12.77 -0.2 6.82
 245 2 13.47 0.39 6.42
 246 3 11.88 0.24 6.75
 247 1 10.06 5.41 -0.02
 248 2 9.77 6.28 -0.41
 249 3 10.31 5.55 0.94
 250 1 0.68 5.47 14
 251 2 1.67 5.49 13.87
 252 3 0.41 6.19 14.65
 253 1 5.63 2.46 12.34
 254 2 6.26 2.23 13.08
 255 3 4.7 2.18 12.59
 256 1 9.36 4.8 6.57
 257 2 9.2 5.58 5.96
 258 3 9.01 3.97 6.15
 259 1 10.17 0.5 7.65
 260 2 9.38 0.6 7.05
 261 3 10.18 -0.42 8.04
 262 1 14.25 11.22 8.91
 263 2 13.85 10.34 9.15
 264 3 14 11.47 7.98
 265 1 14.48 6.03 9.52
 266 2 13.68 5.45 9.46
 267 3 15.03 5.76 10.32
 268 1 -0.01 8.23 3.38
 269 2 0.71 7.8 3.94
 270 3 -0.69 7.54 3.14
 271 1 4.95 14.28 0.83
 272 2 4.08 14.19 1.31
 273 3 4.87 13.9 -0.1
 274 1 17.35 12.82 6.44
 275 2 18.27 12.46 6.27
 276 3 17.41 13.78 6.7
 277 1 13.91 5.41 0.47
 278 2 13.13 5.46 1.09
 279 3 14.56 4.74 0.81
 280 1 5.14 2.56 3.17
 281 2 5.71 2.06 2.51
 282 3 4.91 3.46 2.8
 283 1 17.5 12.62 15.91
 284 2 18.24 12.14 16.39
 285 3 17.72 13.59 15.85
 286 1 10.64 13.14 13.24
 287 2 9.8 12.99 13.75
 288 3 11.42 12.83 13.78
 289 1 15.9 16.37 16.57
 290 2 15.81 16.39 15.58
 291 3 16.64 15.75 16.83
 292 1 11.25 11.82 10.84
 293 2 10.93 12.43 11.56
 294 3 11.3 12.32 9.98
 295 1 16.44 10.97 10.54
 296 2 16.23 11.36 11.44
 297 3 15.72 11.22 9.89
 298 1 9.53 0.74 13.62
 299 2 9.69 0.22 12.78
 300 3 10.3 1.35 13.8
 301 1 9.99 11.22 17.47
 302 2 9.12 11.28 17.97
 303 3 9.9 10.57 16.72
 304 1 7.02 10.41 3.97
 305 2 6.96 10.22 4.95
 306 3 7.86 10.01 3.6
 307 1 4.19 7.95 12.47
 308 2 4.95 8.08 13.1
 309 3 3.86 7.01 12.53
 310 1 12.57 3.59 12.77
 311 2 12.87 4.46 13.15
 312 3 11.59 3.63 12.58
 313 1 0.87 15.66 13.56
 314 2 0.41 16.24 12.89
 315 3 1.82 15.96 13.67
 316 1 3.28 11.14 4.42
 317 2 3.44 12.03 4.01
 318 3 3.33 10.43 3.72
 319 1 5.61 4.95 8.58
 320 2 5.26 5.61 7.91
 321 3 6.33 5.38 9.12
 322 1 12.58 14.1 4.19
 323 2 13.37 14.67 4.41
 324 3 11.77 14.47 4.65
 325 1 12.68 14.59 11.85
 326 2 13.57 14.53 12.29
 327 3 12.01 14.07 12.39
 328 1 16.33 5.84 5.05
 329 2 15.78 6.53 5.52
 330 3 16.79 6.25 4.26
 331 1 3.73 15.27 13.33
 332 2 3.41 15.01 12.42
 333 3 4.66 15.65 13.26
 334 1 4.03 7.02 16
 335 2 4.86 7.33 15.54
 336 3 4.25 6.21 16.56
 337 1 15.92 8.09 16.72
 338 2 15.03 8.56 16.71
 339 3 16.59 8.64 16.22
 340 1 10.15 1.19 18.05
 341 2 10.4 2.14 17.84
 342 3 10.82 0.58 17.62
 343 1 4.94 0.63 17.36
 344 2 4.58 -0.19 16.91
 345 3 4.18 1.21 17.66
 346 1 5.84 8.79 10.28
 347 2 6.05 9.77 10.35
 348 3 5.2 8.54 11
 349 1 13.46 8.61 9.86
 350 2 12.53 8.3 9.67
 351 3 14.05 7.82 10.03
 352 1 11.84 5.21 2.4
 353 2 12.15 4.47 2.99
 354 3 11.51 5.97 2.96
 355 1 3.09 1.95 12.83
 356 2 2.53 2.31 13.59
 357 3 2.75 1.05 12.57
 358 1 0.86 12.98 12.84
 359 2 0.79 12.28 13.55
 360 3 1.21 13.82 13.24
 361 1 7.32 6.5 10.09
 362 2 8.24 6.59 9.71
 363 3 6.83 7.36 9.97
 364 1 17.58 9.25 0.54
 365 2 17.21 8.62 -0.14
 366 3 16.88 9.46 1.22
 367 1 2.58 0.58 6.46
 368 2 2.45 1.56 6.61
 369 3 2.79 0.13 7.33
 370 1 16.47 3.56 3.69
 371 2 17.08 3.06 4.31
 372 3 16.34 4.49 4.02
 373 1 10.8 7.62 9.72
 374 2 10.87 8.01 10.64
 375 3 10.62 6.64 9.79
 376 1 9.67 16 17.41
 377 2 9.87 16.33 16.49
 378 3 9.76 15 17.42
 379 1 -0.24 15.06 15.84
 380 2 0.18 15.16 14.94
 381 3 0.44 15.26 16.55
 382 1 3.27 8.96 18.02
 383 2 4.17 9.41 17.98
 384 3 3.26 8.17 17.41
 385 1 15.6 2.48 1.49
 386 2 14.91 1.76 1.57
 387 3 15.92 2.75 2.41
 388 1 12.99 8.05 0.29
 389 2 13.46 7.17 0.38
 390 3 13.13 8.42 -0.63
 391 1 10.65 13.81 8.57
 392 2 10.76 12.97 8.05
 393 3 11.22 14.53 8.16
 394 1 3.12 8.43 9.33
 395 2 4.09 8.39 9.11
 396 3 2.91 7.79 10.06
 397 1 3.35 5.68 10.19
 398 2 2.92 4.78 10.26
 399 3 4.26 5.59 9.77
 400 1 4.65 4.31 18.12
 401 2 4.5 4.34 19.11
 402 3 5.42 4.92 17.89
 403 1 11.4 3.54 16.91
 404 2 10.73 4.12 17.37
 405 3 12.25 4.06 16.75
 406 1 11.84 1.71 14.65
 407 2 11.59 2.3 15.42
 408 3 12.33 2.25 13.96
 409 1 18.43 13.24 1.6
 410 2 17.47 13.5 1.49
 411 3 18.5 12.26 1.73
 412 1 1.29 17.35 9.33
 413 2 1.26 16.43 8.93
 414 3 2.18 17.77 9.12
 415 1 4.78 15.78 8.82
 416 2 5.42 16.43 9.23
 417 3 5.28 15.19 8.18
 418 1 9.96 8.02 12.31
 419 2 10.29 7.64 13.17
 420 3 8.99 8.24 12.4
 421 1 0.75 5.79 11.24
 422 2 1.72 5.89 11.03
 423 3 0.59 6.04 12.2
 424 1 1.62 5.38 17.25
 425 2 1.83 4.68 16.57
 426 3 1.14 6.14 16.82
 427 1 13.42 9.41 16.53
 428 2 13.82 10.32 16.41
 429 3 13.17 9.03 15.64
 430 1 8.37 5.92 4.02
 431 2 8.52 5.03 3.58
 432 3 7.48 6.28 3.76
 433 1 16.36 5.93 11.58
 434 2 16.56 5.32 12.35
 435 3 17.13 5.94 10.95
 436 1 2.26 15.2 17.55
 437 2 1.91 15.89 18.18
 438 3 2.44 14.36 18.05
 439 1 7.2 4.73 12.1
 440 2 6.66 3.92 11.88
 441 3 7.18 5.37 11.32
 442 1 9.76 16.56 14.46
 443 2 9.24 16.62 13.6
 444 3 10.38 17.35 14.52
 445 1 4.36 5.01 2.14
 446 2 4.78 5.36 2.98
 447 3 3.61 5.6 1.86
 448 1 1.18 10.94 14.72
 449 2 1.18 10.83 15.71
 450 3 1.24 10.05 14.28
 451 1 13.19 10.34 11.93
 452 2 13.49 9.82 11.13
 453 3 12.25 10.67 11.78
 454 1 13.29 8.4 3.11
 455 2 12.42 8.35 3.6
 456 3 13.12 8.49 2.13
 457 1 17.72 17.28 11.28
 458 2 18.32 17.51 10.51
 459 3 17.43 16.33 11.2
 460 1 12.33 17.31 11.61
 461 2 13.1 17.53 11.01
 462 3 12.36 16.33 11.83
 463 1 0.7 12.87 10
 464 2 0.27 13.17 10.86
 465 3 0.14 12.15 9.59
 466 1 7.21 16.99 17.2
 467 2 6.9 17.27 16.29
 468 3 8.2 16.89 17.2
 469 1 8.66 0.75 1.83
 470 2 9.27 0.71 1.04
 471 3 8.93 0.06 2.5
 472 1 17.44 1.72 5.42
 473 2 18.44 1.72 5.36
 474 3 17.14 0.92 5.94
 475 1 14.15 16.34 4.92
 476 2 14.72 16.71 4.18
 477 3 13.62 17.07 5.34
 478 1 1.16 17.73 -0.23
 479 2 0.45 17.38 0.38
 480 3 1.93 18.07 0.3
 481 1 12.82 9.64 6.74
 482 2 13.41 8.86 6.5
 483 3 13.14 10.45 6.26
 484 1 7.7 12.92 13.9
 485 2 7.53 13.68 14.54
 486 3 7.13 13.04 13.09
 487 1 6.96 16.43 1.1
 488 2 7.25 16.64 0.16
 489 3 6.17 15.82 1.07
 490 1 16.14 17.64 13.57
 491 2 16.73 17.78 12.77
 492 3 15.94 18.52 14
 493 1 0.33 1.69 9.28
 494 2 0.45 1.07 8.5
 495 3 -0.61 2.03 9.29
 496 1 2.48 3.34 7.48
 497 2 1.55 3.68 7.32
 498 3 2.68 3.38 8.46
 499 1 12.17 16.17 0.36
 500 2 11.89 15.34 0.85
 501 3 11.42 16.47 -0.24
 502 1 8.19 10.14 13.63
 503 2 8.27 10.14 12.63
 504 3 8.08 11.08 13.95
 505 1 9.53 9.84 3.03
 506 2 10.08 10.05 2.22
 507 3 10.06 9.26 3.65
 508 1 14.85 15.98 0.51
 509 2 13.89 15.96 0.23
 510 3 15.4 16.35 -0.23
 511 1 3.55 12.72 14.85
 512 2 3.56 13.67 14.53
 513 3 2.72 12.27 14.54
 514 1 16.18 12.8 12.91
 515 2 17.11 12.71 13.28
 516 3 15.7 13.54 13.39
 517 1 10.57 11.43 7.36
 518 2 9.81 10.92 7.78
 519 3 11.3 10.79 7.12
 520 1 9.93 2.42 9.89
 521 2 10.06 2.16 8.93
 522 3 9.92 1.59 10.46
 523 1 6.33 14.73 4.54
 524 2 6.6 13.98 3.94
 525 3 5.84 15.42 4.01
 526 1 17.39 3.75 13.43
 527 2 18.16 4.37 13.54
 528 3 17.56 3.13 12.66
 529 1 2.4 13.86 2.52
 530 2 1.44 13.58 2.54
 531 3 2.7 14.09 3.44
 532 1 0.77 10.4 17.52
 533 2 -0.04 10.06 18
 534 3 1.53 9.77 17.68
 535 1 7.28 2 14.46
 536 2 8.06 1.42 14.21
 537 3 7.54 2.6 15.21
 538 1 0.41 3.4 0.56
 539 2 -0.57 3.39 0.77
 540 3 0.61 4.16 -0.05
 541 1 14.06 8.57 13.97
 542 2 13.81 9.13 13.18
 543 3 15.02 8.72 14.21
 544 1 0.69 1.71 3.03
 545 2 0.41 1.98 2.11
 546 3 1.67 1.54 3.05
 547 1 11.54 13.72 1.75
 548 2 10.58 13.45 1.84
 549 3 11.96 13.74 2.66
 550 1 6.29 8.09 14.21
 551 2 6.91 8.86 14.07
 552 3 6.81 7.29 14.5
 553 1 14.22 17.19 9.87
 554 2 14.54 17.98 9.33
 555 3 14.75 16.38 9.62
 556 1 7.2 5.86 16.95
 557 2 7.66 6.72 17.19
 558 3 7.59 5.12 17.5
 559 1 14.85 11.63 16.5
 560 2 14.78 11.98 17.44
 561 3 15.77 11.82 16.15
 562 1 3.44 17.31 15.75
 563 2 2.57 17.76 15.51
 564 3 3.25 16.42 16.16
 565 1 16.86 8.77 12.48
 566 2 16.7 7.84 12.16
 567 3 16.63 9.42 11.76
 568 1 12.48 3.27 4.62
 569 2 13.12 2.5 4.66
 570 3 12.65 3.88 5.39
 571 1 5.45 7.57 7.09
 572 2 6.05 8.33 6.85
 573 3 4.82 7.4 6.33
 574 1 17.72 3.62 16.41
 575 2 17.26 3.9 15.56
 576 3 17.09 3.09 16.97
 577 1 17.37 9.48 14.97
 578 2 17.61 10.44 15.03
 579 3 17.03 9.28 14.05
 580 1 8.47 13.75 0.86
 581 2 8.08 13.45 1.73
 582 3 8.59 14.74 0.88
 583 1 6.33 17.9 9.45
 584 2 6.34 18.87 9.21
 585 3 7.27 17.55 9.47
 586 1 14.54 18.65 17.59
 587 2 13.62 18.4 17.3
 588 3 15.2 18 17.2
 589 1 8.84 9.47 8.54
 590 2 9.63 8.87 8.67
 591 3 8.14 9.24 9.22
 592 1 11.37 10.16 1
 593 2 11.02 10.67 0.21
 594 3 11.9 9.37 0.68
 595 1 0.12 14.73 8.27
 596 2 -0.68 14.91 8.84
 597 3 0.62 13.95 8.62
 598 1 2.37 12.67 0.01
 599 2 1.72 11.95 -0.24
 600 3 2.29 12.85 0.99
 601 1 1.4 11.88 6.12
 602 2 1.68 11.76 7.07
 603 3 2.17 11.7 5.52
 604 1 6.73 14.37 16.19
 605 2 5.96 13.79 16.46
 606 3 6.69 15.23 16.69
 607 1 18.45 1.31 12.1
 608 2 18.42 0.32 12.25
 609 3 18.47 1.5 11.12
 610 1 4.63 4.2 5.6
 611 2 4.85 3.36 5.11
 612 3 4.03 3.98 6.38
 613 1 16.86 14.72 10.65
 614 2 16.16 14.53 9.96
 615 3 16.52 14.47 11.55
 616 1 3.21 5.37 13.25
 617 2 3.86 5 13.92
 618 3 3.1 4.71 12.5
 619 1 8.45 16.45 6.73
 620 2 8.23 17.35 6.36
 621 3 7.74 16.17 7.37
 622 1 13.98 1.93 11.15
 623 2 13.97 1.02 11.56
 624 3 13.55 2.59 11.77
 625 1 9.95 18.54 11.25
 626 2 9.46 18.11 10.49
 627 3 10.82 18.06 11.39
 628 1 7.75 12.7 3.02
 629 2 7.43 11.81 3.36
 630 3 8.7 12.83 3.29
 631 1 6.31 16.05 12.54
 632 2 6.47 16.69 13.29
 633 3 7.19 15.83 12.1
 634 1 13.49 0.71 1.53
 635 2 13.79 0.25 0.7
 636 3 12.6 0.36 1.81
 637 1 13.07 5.11 6.72
 638 2 12.42 5.88 6.71
 639 3 12.94 4.58 7.57
 640 1 15.87 1.49 9.17
 641 2 15.33 1.78 9.95
 642 3 15.83 2.18 8.45
 643 1 0.57 10.83 3.05
 644 2 1.54 10.96 2.82
 645 3 0.36 9.86 3.09
 646 1 8.54 16.64 3.21
 647 2 7.92 16.72 2.43
 648 3 8.13 17.06 4.01
ITEM: TIMESTEP
2
ITEM: NUMBER OF ATOMS
648
ITEM: BOX BOUNDS pp pp pp